
  
       50425  atoms
           1  atom types
 
      0.000000000000     135.846000000000  xlo xhi
      0.000000000000     192.254000000000  ylo yhi
      0.000000000000     111.082000000000  zlo zhi
 
Masses
 
            1   95.96000000             # Mo
 
Atoms # atomic
 
         1    1       53.119317996000       2.563399483600      26.292553990000
         2    1       52.207247952000       0.000014356433      26.284667168000
         3    1       54.038452032000       1.281715122120      24.078023238000
         4    1       52.207247952000       7.690179225400      26.284667168000
         5    1       54.031252194000       5.126798967200      26.300218648000
         6    1       51.295042062000       5.126779741800      26.276780346000
         7    1       53.119317996000      10.253559483600      26.292553990000
         8    1       54.038452032000       8.971878967200      24.078023238000
         9    1       52.207247952000      15.380339225400      26.284667168000
        10    1       54.031252194000      12.816958967200      26.300218648000
        11    1       51.295042062000      12.816939741800      26.276780346000
        12    1       54.038452032000      16.662038967200      24.078023238000
        13    1       53.119317996000      17.943719483600      26.292553990000
        14    1       54.031252194000      20.507157418000      26.300218648000
        15    1       51.295042062000      20.507157418000      26.276780346000
        16    1       52.207247952000      23.070480000000      26.284667168000
        17    1       54.038452032000      24.352237418000      24.078023238000
        18    1       54.031252194000      28.197317418000      26.300218648000
        19    1       51.295042062000      28.197317418000      26.276780346000
        20    1       53.119317996000      25.633802582000      26.292553990000
        21    1       54.038452032000      32.042397418000      24.078023238000
        22    1       52.207247952000      30.760640000000      26.284667168000
        23    1       53.119317996000      33.323962582000      26.292553990000
        24    1       51.295042062000      35.887477418000      26.276780346000
        25    1       54.031252194000      35.887477418000      26.300218648000
        26    1       48.545247330000       1.281692051640      28.470538764000
        27    1       49.458268296000       3.845080000000      28.478869914000
        28    1       47.616332382000       2.563380258200      30.677849186000
        29    1       51.284310228000       1.281701664340      28.495865460000
        30    1       54.022693896000       1.281713199580      28.521525402000
        31    1       52.197195348000       3.845099225400      28.504418774000
        32    1       50.357704662000       2.563380258200      30.704508866000
        33    1       52.185105054000       0.000005225156      30.722948478000
        34    1       53.098805250000       2.563399483600      30.732279366000
        35    1       48.530032578000       5.126760516400      30.686513582000
        36    1       46.702496340000       7.690140774600      30.669184790000
        37    1       49.443868620000       7.690160000000      30.695511224000
        38    1       50.371289262000       6.408479483600      28.487423228000
        39    1       53.110080468000       6.408479483600      28.512972088000
        40    1       51.271404858000       5.126779741800      30.713728672000
        41    1       54.012233754000       5.126779741800      30.741610254000
        42    1       52.185105054000       7.690160000000      30.722948478000
        43    1       48.545247330000       8.971859741800      28.470538764000
        44    1       49.458268296000      11.535240000000      28.478869914000
        45    1       47.616332382000      10.253540258200      30.677849186000
        46    1       48.530032578000      12.816920516400      30.686513582000
        47    1       51.284310228000       8.971859741800      28.495865460000
        48    1       54.022693896000       8.971878967200      28.521525402000
        49    1       52.197195348000      11.535259225400      28.504418774000
        50    1       50.357704662000      10.253540258200      30.704508866000
        51    1       53.098805250000      10.253559483600      30.732279366000
        52    1       48.545247330000      16.662019741800      28.470538764000
        53    1       46.702496340000      15.380300774600      30.669184790000
        54    1       49.443868620000      15.380320000000      30.695511224000
        55    1       50.371289262000      14.098639483600      28.487423228000
        56    1       53.110080468000      14.098639483600      28.512972088000
        57    1       51.284310228000      16.662019741800      28.495865460000
        58    1       54.022693896000      16.662038967200      28.521525402000
        59    1       51.271404858000      12.816939741800      30.713728672000
        60    1       54.012233754000      12.816939741800      30.741610254000
        61    1       52.185105054000      15.380320000000      30.722948478000
        62    1       49.458268296000      19.225400000000      28.478869914000
        63    1       48.530032578000      20.507157418000      30.686513582000
        64    1       47.616332382000      17.943700258200      30.677849186000
        65    1       52.197195348000      19.225400000000      28.504418774000
        66    1       51.271404858000      20.507157418000      30.713728672000
        67    1       50.357704662000      17.943700258200      30.704508866000
        68    1       54.012233754000      20.507157418000      30.741610254000
        69    1       53.098805250000      17.943719483600      30.732279366000
        70    1       48.545247330000      24.352237418000      28.470538764000
        71    1       46.702496340000      23.070480000000      30.669184790000
        72    1       47.616332382000      25.633802582000      30.677849186000
        73    1       49.443868620000      23.070480000000      30.695511224000
        74    1       50.371289262000      21.788722582000      28.487423228000
        75    1       53.110080468000      21.788722582000      28.512972088000
        76    1       51.284310228000      24.352237418000      28.495865460000
        77    1       54.022693896000      24.352237418000      28.521525402000
        78    1       50.357704662000      25.633802582000      30.704508866000
        79    1       52.185105054000      23.070480000000      30.722948478000
        80    1       49.458268296000      26.915560000000      28.478869914000
        81    1       48.530032578000      28.197317418000      30.686513582000
        82    1       53.098805250000      25.633802582000      30.732279366000
        83    1       50.371289262000      29.478882582000      28.487423228000
        84    1       52.197195348000      26.915560000000      28.504418774000
        85    1       53.110080468000      29.478882582000      28.512972088000
        86    1       51.271404858000      28.197317418000      30.713728672000
        87    1       54.012233754000      28.197317418000      30.741610254000
        88    1       48.545247330000      32.042397418000      28.470538764000
        89    1       46.702496340000      30.760640000000      30.669184790000
        90    1       47.616332382000      33.323962582000      30.677849186000
        91    1       49.443868620000      30.760640000000      30.695511224000
        92    1       51.284310228000      32.042397418000      28.495865460000
        93    1       54.022693896000      32.042397418000      28.521525402000
        94    1       50.357704662000      33.323962582000      30.704508866000
        95    1       52.185105054000      30.760640000000      30.722948478000
        96    1       53.098805250000      33.323962582000      30.732279366000
        97    1       49.458268296000      34.605720000000      28.478869914000
        98    1       48.530032578000      35.887477418000      30.686513582000
        99    1       46.702496340000      38.450800000000      30.669184790000
       100    1       49.443868620000      38.450800000000      30.695511224000
       101    1       50.371289262000      37.169042582000      28.487423228000
       102    1       52.197195348000      34.605720000000      28.504418774000
       103    1       53.110080468000      37.169042582000      28.512972088000
       104    1       51.271404858000      35.887477418000      30.713728672000
       105    1       54.012233754000      35.887477418000      30.741610254000
       106    1       44.830538460000       2.563361032800      35.077807206000
       107    1       45.768826782000       1.281670903700      32.874273572000
       108    1       48.512100906000       1.281676671320      32.901155416000
       109    1       46.683070362000       3.845060774600      32.883049050000
       110    1       49.426616178000       3.845060774600      32.910486304000
       111    1       47.575171044000       2.563361032800      35.104466886000
       112    1       51.255918414000       1.281686284020      32.929925654000
       113    1       54.013592214000       1.280371266660      32.976246848000
       114    1       52.170433686000       3.845080000000      32.939923034000
       115    1       50.321297934000       2.563361032800      35.133903616000
       116    1       53.080330194000       2.560073489400      35.178447498000
       117    1       44.854583202000       6.408441032800      32.865831340000
       118    1       43.915887342000       7.690121549200      35.069476056000
       119    1       47.597585634000       6.408441032800      32.891935610000
       120    1       45.745189578000       5.126741291000      35.086360520000
       121    1       48.490365546000       5.126741291000      35.114019938000
       122    1       46.660112388000       7.690121549200      35.095247080000
       123    1       49.405831740000       7.690140774600      35.123795154000
       124    1       50.341267296000       6.408460258200      32.920150438000
       125    1       53.099756172000       6.407902721600      32.964138910000
       126    1       51.251299650000       5.125203259000      35.157341918000
       127    1       53.995524696000       5.122204096600      35.190666518000
       128    1       52.167988458000       7.687679923400      35.169449856000
       129    1       44.830538460000      10.253521032800      35.077807206000
       130    1       45.768826782000       8.971821291000      32.874273572000
       131    1       48.512100906000       8.971840516400      32.901155416000
       132    1       46.683070362000      11.535220774600      32.883049050000
       133    1       49.426616178000      11.535220774600      32.910486304000
       134    1       47.575171044000      10.253521032800      35.104466886000
       135    1       45.745189578000      12.816901291000      35.086360520000
       136    1       48.490365546000      12.816901291000      35.114019938000
       137    1       51.255918414000       8.971840516400      32.929925654000
       138    1       54.013592214000       8.970533189200      32.976246848000
       139    1       52.170433686000      11.535240000000      32.939923034000
       140    1       50.321297934000      10.253521032800      35.133903616000
       141    1       53.080330194000      10.250233489400      35.178447498000
       142    1       51.251299650000      12.815363259000      35.157341918000
       143    1       53.995524696000      12.812364096600      35.190666518000
       144    1       44.854583202000      14.098601032800      32.865831340000
       145    1       43.915887342000      15.380281549200      35.069476056000
       146    1       47.597585634000      14.098601032800      32.891935610000
       147    1       45.768826782000      16.661981291000      32.874273572000
       148    1       48.512100906000      16.662000516400      32.901155416000
       149    1       46.660112388000      15.380281549200      35.095247080000
       150    1       49.405831740000      15.380300774600      35.123795154000
       151    1       50.341267296000      14.098620258200      32.920150438000
       152    1       53.099756172000      14.098062721600      32.964138910000
       153    1       51.255918414000      16.662000516400      32.929925654000
       154    1       54.013592214000      16.660693189200      32.976246848000
       155    1       52.167988458000      15.377839923400      35.169449856000
       156    1       44.830538460000      17.943681032800      35.077807206000
       157    1       46.683070362000      19.225380774600      32.883049050000
       158    1       49.426616178000      19.225380774600      32.910486304000
       159    1       45.745189578000      20.507157418000      35.086360520000
       160    1       48.490365546000      20.507157418000      35.114019938000
       161    1       47.575171044000      17.943681032800      35.104466886000
       162    1       52.170433686000      19.225400000000      32.939923034000
       163    1       51.251299650000      20.505427132000      35.157341918000
       164    1       50.321297934000      17.943681032800      35.133903616000
       165    1       53.995524696000      20.502543322000      35.190666518000
       166    1       53.080330194000      17.940393489400      35.178447498000
       167    1       44.854583202000      21.788722582000      32.865831340000
       168    1       43.915887342000      23.070480000000      35.069476056000
       169    1       44.830538460000      25.633802582000      35.077807206000
       170    1       47.597585634000      21.788722582000      32.891935610000
       171    1       45.768826782000      24.352237418000      32.874273572000
       172    1       48.512100906000      24.352237418000      32.901155416000
       173    1       46.660112388000      23.070480000000      35.095247080000
       174    1       47.575171044000      25.633802582000      35.104466886000
       175    1       49.405831740000      23.070480000000      35.123795154000
       176    1       50.341267296000      21.788722582000      32.920150438000
       177    1       53.099756172000      21.788145820000      32.964138910000
       178    1       51.255918414000      24.352237418000      32.929925654000
       179    1       54.013592214000      24.350891640000      32.976246848000
       180    1       50.321297934000      25.633802582000      35.133903616000
       181    1       52.167988458000      23.067980698000      35.169449856000
       182    1       53.080330194000      25.630534264000      35.178447498000
       183    1       44.854583202000      29.478882582000      32.865831340000
       184    1       46.683070362000      26.915560000000      32.883049050000
       185    1       47.597585634000      29.478882582000      32.891935610000
       186    1       49.426616178000      26.915560000000      32.910486304000
       187    1       45.745189578000      28.197317418000      35.086360520000
       188    1       48.490365546000      28.197317418000      35.114019938000
       189    1       50.341267296000      29.478882582000      32.920150438000
       190    1       52.170433686000      26.915560000000      32.939923034000
       191    1       53.099756172000      29.478305820000      32.964138910000
       192    1       51.251299650000      28.195587132000      35.157341918000
       193    1       53.995524696000      28.192703322000      35.190666518000
       194    1       43.915887342000      30.760640000000      35.069476056000
       195    1       44.830538460000      33.323962582000      35.077807206000
       196    1       45.768826782000      32.042397418000      32.874273572000
       197    1       48.512100906000      32.042397418000      32.901155416000
       198    1       46.660112388000      30.760640000000      35.095247080000
       199    1       47.575171044000      33.323962582000      35.104466886000
       200    1       49.405831740000      30.760640000000      35.123795154000
       201    1       51.255918414000      32.042397418000      32.929925654000
       202    1       54.013592214000      32.041051640000      32.976246848000
       203    1       50.321297934000      33.323962582000      35.133903616000
       204    1       52.167988458000      30.758140698000      35.169449856000
       205    1       53.080330194000      33.320694264000      35.178447498000
       206    1       44.854583202000      37.169042582000      32.865831340000
       207    1       43.915887342000      38.450800000000      35.069476056000
       208    1       46.683070362000      34.605720000000      32.883049050000
       209    1       47.597585634000      37.169042582000      32.891935610000
       210    1       49.426616178000      34.605720000000      32.910486304000
       211    1       45.745189578000      35.887477418000      35.086360520000
       212    1       48.490365546000      35.887477418000      35.114019938000
       213    1       46.660112388000      38.450800000000      35.095247080000
       214    1       49.405831740000      38.450800000000      35.123795154000
       215    1       50.341267296000      37.169042582000      32.920150438000
       216    1       52.170433686000      34.605720000000      32.939923034000
       217    1       53.099756172000      37.168465820000      32.964138910000
       218    1       51.251299650000      35.885747132000      35.157341918000
       219    1       53.995524696000      35.882863322000      35.190666518000
       220    1       52.167988458000      38.448300698000      35.169449856000
       221    1       42.972708564000       1.281651678300      37.272232116000
       222    1       43.887359682000       3.845041549200      37.280118938000
       223    1       42.025046868000       2.563341807400      39.474766012000
       224    1       44.769271914000       2.563341807400      39.497871068000
       225    1       45.717476994000       1.281653600840      37.297003402000
       226    1       48.464418960000       1.281655523380      37.324996066000
       227    1       46.632807342000       3.845041549200      37.306001044000
       228    1       49.392926370000       3.844330209400      37.344657580000
       229    1       47.516485572000       2.563341807400      39.524530748000
       230    1       51.226983216000       1.278416043480      37.367540472000
       231    1       53.974196874000       1.278354522200      37.406419172000
       232    1       52.142992794000       3.839850691200      37.379648410000
       233    1       50.280272442000       2.558266301800      39.564853514000
       234    1       53.031289788000       2.558362428800      39.605398444000
       235    1       42.058329138000       6.408421807400      37.264678540000
       236    1       44.802282492000       6.408421807400      37.288450088000
       237    1       42.939562140000       5.126722065600      39.482097424000
       238    1       41.110939134000       7.690102323800      39.467656764000
       239    1       43.854213258000       7.690102323800      39.489873164000
       240    1       47.548545228000       6.408421807400      37.315331932000
       241    1       45.684738108000       5.126722065600      39.506424382000
       242    1       48.448389132000       5.124222763600      39.543414688000
       243    1       46.600475994000       7.690102323800      39.515199860000
       244    1       49.366028862000       7.687372317000      39.553967478000
       245    1       50.313283020000       6.405441870400      37.357765256000
       246    1       53.059953294000       6.405057362400      37.394311234000
       247    1       51.198998940000       5.122223322000      39.579072010000
       248    1       53.949065364000       5.121473531400      39.619505858000
       249    1       52.114329288000       7.685968862800      39.591957522000
       250    1       42.972708564000       8.971821291000      37.272232116000
       251    1       43.887359682000      11.535201549200      37.280118938000
       252    1       42.025046868000      10.253501807400      39.474766012000
       253    1       44.769271914000      10.253501807400      39.497871068000
       254    1       42.939562140000      12.816882065600      39.482097424000
       255    1       45.717476994000       8.971821291000      37.297003402000
       256    1       48.464418960000       8.971821291000      37.324996066000
       257    1       46.632807342000      11.535201549200      37.306001044000
       258    1       49.392926370000      11.534490209400      37.344657580000
       259    1       47.516485572000      10.253501807400      39.524530748000
       260    1       45.684738108000      12.816882065600      39.506424382000
       261    1       48.448389132000      12.814382763600      39.543414688000
       262    1       51.226983216000       8.968572198400      37.367540472000
       263    1       53.974196874000       8.968514522200      37.406419172000
       264    1       52.142992794000      11.530010691200      37.379648410000
       265    1       50.280272442000      10.248426301800      39.564853514000
       266    1       53.031289788000      10.248522428800      39.605398444000
       267    1       51.198998940000      12.812383322000      39.579072010000
       268    1       53.949065364000      12.811633531400      39.619505858000
       269    1       42.058329138000      14.098581807400      37.264678540000
       270    1       44.802282492000      14.098581807400      37.288450088000
       271    1       42.972708564000      16.661981291000      37.272232116000
       272    1       41.110939134000      15.380262323800      39.467656764000
       273    1       43.854213258000      15.380262323800      39.489873164000
       274    1       47.548545228000      14.098581807400      37.315331932000
       275    1       45.717476994000      16.661981291000      37.297003402000
       276    1       48.464418960000      16.661981291000      37.324996066000
       277    1       46.600475994000      15.380262323800      39.515199860000
       278    1       49.366028862000      15.377532317000      39.553967478000
       279    1       50.313283020000      14.095601870400      37.357765256000
       280    1       53.059953294000      14.095217362400      37.394311234000
       281    1       51.226983216000      16.658732198400      37.367540472000
       282    1       53.974196874000      16.658674522200      37.406419172000
       283    1       52.114329288000      15.376128862800      39.591957522000
       284    1       43.887359682000      19.225361549200      37.280118938000
       285    1       42.939562140000      20.506965164000      39.482097424000
       286    1       42.025046868000      17.943661807400      39.474766012000
       287    1       44.769271914000      17.943661807400      39.497871068000
       288    1       46.632807342000      19.225361549200      37.306001044000
       289    1       49.392926370000      19.224650209400      37.344657580000
       290    1       45.684738108000      20.506965164000      39.506424382000
       291    1       48.448389132000      20.504465862000      39.543414688000
       292    1       47.516485572000      17.943661807400      39.524530748000
       293    1       52.142992794000      19.220170691200      37.379648410000
       294    1       51.198998940000      20.502543322000      39.579072010000
       295    1       50.280272442000      17.938586301800      39.564853514000
       296    1       53.949065364000      20.501774306000      39.619505858000
       297    1       53.031289788000      17.938682428800      39.605398444000
       298    1       42.058329138000      21.788722582000      37.264678540000
       299    1       44.802282492000      21.788722582000      37.288450088000
       300    1       42.972708564000      24.352045164000      37.272232116000
       301    1       41.110939134000      23.070480000000      39.467656764000
       302    1       42.025046868000      25.633802582000      39.474766012000
       303    1       43.854213258000      23.070480000000      39.489873164000
       304    1       44.769271914000      25.633802582000      39.497871068000
       305    1       47.548545228000      21.788722582000      37.315331932000
       306    1       45.717476994000      24.352045164000      37.297003402000
       307    1       48.464418960000      24.352045164000      37.324996066000
       308    1       46.600475994000      23.070480000000      39.515199860000
       309    1       47.516485572000      25.633802582000      39.524530748000
       310    1       49.366028862000      23.067596190000      39.553967478000
       311    1       50.313283020000      21.785838772000      37.357765256000
       312    1       53.059953294000      21.785454264000      37.394311234000
       313    1       51.226983216000      24.348969100000      37.367540472000
       314    1       53.974196874000      24.348776846000      37.406419172000
       315    1       50.280272442000      25.628803978000      39.564853514000
       316    1       52.114329288000      23.066250412000      39.591957522000
       317    1       53.031289788000      25.628803978000      39.605398444000
       318    1       42.058329138000      29.478882582000      37.264678540000
       319    1       43.887359682000      26.915560000000      37.280118938000
       320    1       44.802282492000      29.478882582000      37.288450088000
       321    1       42.939562140000      28.197125164000      39.482097424000
       322    1       46.632807342000      26.915560000000      37.306001044000
       323    1       47.548545228000      29.478882582000      37.315331932000
       324    1       49.392926370000      26.914790984000      37.344657580000
       325    1       45.684738108000      28.197125164000      39.506424382000
       326    1       48.448389132000      28.194625862000      39.543414688000
       327    1       50.313283020000      29.475998772000      37.357765256000
       328    1       52.142992794000      26.910369142000      37.379648410000
       329    1       53.059953294000      29.475614264000      37.394311234000
       330    1       51.198998940000      28.192703322000      39.579072010000
       331    1       53.949065364000      28.191934306000      39.619505858000
       332    1       42.972708564000      32.042205164000      37.272232116000
       333    1       41.110939134000      30.760640000000      39.467656764000
       334    1       42.025046868000      33.323962582000      39.474766012000
       335    1       43.854213258000      30.760640000000      39.489873164000
       336    1       44.769271914000      33.323962582000      39.497871068000
       337    1       45.717476994000      32.042205164000      37.297003402000
       338    1       48.464418960000      32.042205164000      37.324996066000
       339    1       46.600475994000      30.760640000000      39.515199860000
       340    1       47.516485572000      33.323962582000      39.524530748000
       341    1       49.366028862000      30.757756190000      39.553967478000
       342    1       51.226983216000      32.039129100000      37.367540472000
       343    1       53.974196874000      32.038936846000      37.406419172000
       344    1       50.280272442000      33.318963978000      39.564853514000
       345    1       52.114329288000      30.756410412000      39.591957522000
       346    1       53.031289788000      33.318963978000      39.605398444000
       347    1       43.854213258000      38.450800000000      39.489873164000
       348    1       41.110939134000      38.450800000000      39.467656764000
       349    1       42.939562140000      35.887285164000      39.482097424000
       350    1       44.802282492000      37.169042582000      37.288450088000
       351    1       43.887359682000      34.605720000000      37.280118938000
       352    1       42.058329138000      37.169042582000      37.264678540000
       353    1       49.366028862000      38.447916190000      39.553967478000
       354    1       46.600475994000      38.450800000000      39.515199860000
       355    1       48.448389132000      35.884785862000      39.543414688000
       356    1       45.684738108000      35.887285164000      39.506424382000
       357    1       49.392926370000      34.604950984000      37.344657580000
       358    1       47.548545228000      37.169042582000      37.315331932000
       359    1       46.632807342000      34.605720000000      37.306001044000
       360    1       52.114329288000      38.446570412000      39.591957522000
       361    1       53.949065364000      35.882094306000      39.619505858000
       362    1       51.198998940000      35.882863322000      39.579072010000
       363    1       53.059953294000      37.165774264000      37.394311234000
       364    1       52.142992794000      34.600529142000      37.379648410000
       365    1       50.313283020000      37.166158772000      37.357765256000
       366    1       40.072260618000       1.281626685280      46.093364818000