 # COMPND    UNNAMED
  
          59  atoms
           2  atom types
 
      0.000000000000      19.048000000000  xlo xhi
      0.000000000000       9.924000000000  ylo yhi
      0.000000000000       9.196000000000  zlo zhi
 
Masses
 
            1   12.01100000             # C
            2   1.00800000              # H
 
Atoms # atomic
 
         1    1       11.417000000000       2.418000000000       9.118000000000
         2    1       12.941000000000       2.172000000000       0.211000000000
         3    1       11.034000000000       3.898000000000       9.085000000000
         4    2       11.272000000000       4.405000000000       0.848000000000
         5    2        9.972000000000       4.026000000000       8.825000000000
         6    2       11.493000000000       4.398000000000       8.228000000000
         7    1       14.010000000000       2.778000000000       8.438000000000
         8    2       13.055000000000       1.066000000000       0.155000000000
         9    2       13.192000000000       2.471000000000       1.252000000000
        10    1       14.226000000000       4.301000000000       8.571000000000
        11    2       13.424000000000       4.913000000000       8.149000000000
        12    2       15.122000000000       4.614000000000       7.997000000000
        13    2       14.312000000000       4.606000000000       0.431000000000
        14    1       15.372000000000       2.016000000000       8.539000000000
        15    2       13.676000000000       2.576000000000       7.396000000000
        16    1       16.215000000000       2.013000000000       0.657000000000
        17    2       15.134000000000       0.955000000000       8.303000000000
        18    2       16.023000000000       2.381000000000       7.716000000000
        19    1       16.810000000000       3.378000000000       1.046000000000
        20    2       17.330000000000       3.857000000000       0.199000000000
        21    2       17.513000000000       3.263000000000       1.898000000000
        22    2       16.044000000000       4.075000000000       1.411000000000
        23    1       17.336000000000       0.933000000000       0.568000000000
        24    2       15.569000000000       1.686000000000       1.501000000000
        25    1       18.352000000000       1.001000000000       8.605000000000
        26    2       16.827000000000       9.875000000000       0.457000000000
        27    2       17.892000000000       0.884000000000       1.529000000000
        28    1        0.411000000000       2.047000000000       8.706000000000
        29    2       17.868000000000       1.007000000000       7.606000000000
        30    2        0.043000000000       3.069000000000       8.519000000000
        31    2        1.170000000000       1.833000000000       7.924000000000
        32    2        0.906000000000       1.992000000000       0.501000000000
        33    1        4.452000000000       1.195000000000       0.061000000000
        34    1        5.967000000000       1.064000000000       0.304000000000
        35    1        3.766000000000       2.374000000000       0.758000000000
        36    2        4.201000000000       1.125000000000       8.177000000000
        37    2        3.967000000000       2.338000000000       1.848000000000
        38    2        2.670000000000       2.295000000000       0.603000000000
        39    2        4.083000000000       3.359000000000       0.376000000000
        40    1        6.872000000000       1.878000000000       8.540000000000
        41    2        6.217000000000       9.919000000000       0.139000000000
        42    2        6.175000000000       1.283000000000       1.369000000000
        43    1        6.577000000000       3.389000000000       8.487000000000
        44    2        5.575000000000       3.565000000000       8.052000000000
        45    2        7.287000000000       3.892000000000       7.797000000000
        46    2        6.628000000000       3.890000000000       0.272000000000
        47    1        8.388000000000       1.595000000000       8.767000000000
        48    2        6.663000000000       1.524000000000       7.505000000000
        49    1        9.011000000000       1.758000000000       0.994000000000
        50    2        8.590000000000       0.544000000000       8.464000000000
        51    2        8.920000000000       2.227000000000       8.032000000000
        52    1        8.593000000000       3.004000000000       1.806000000000
        53    2        8.812000000000       3.977000000000       1.344000000000
        54    2        9.092000000000       2.984000000000       2.798000000000
        55    2        7.511000000000       2.976000000000       2.030000000000
        56    1       10.572000000000       1.594000000000       0.958000000000
        57    2        8.626000000000       0.921000000000       1.620000000000
        58    2       10.786000000000       0.523000000000       0.743000000000
        59    2       10.948000000000       1.787000000000       1.986000000000
