 # Fe2
  
           2  atoms
           1  atom types
 
      0.000000000000       2.840051680000  xlo xhi
      0.000000000000       2.840051680000  ylo yhi
      0.000000000000       2.840051680000  zlo zhi
 
Masses
 
            1   55.84500000             # Fe
 
Atoms # atomic
 
         1    1        0.000000000000       0.000000000000       0.000000000000
         2    1        1.420025840000       1.420025840000       1.420025840000
